69
	Energy: -1147030.5662172
C         -0.63919       -1.12840        0.10910
C         -0.63921        1.12839       -0.10911
C          1.30893        0.00001       -0.00000
N          0.69909        1.18357       -0.05539
N         -1.34856       -0.00001       -0.00000
N          0.69911       -1.18355        0.05539
N         -1.32710       -2.31639        0.30627
N         -1.32714        2.31637       -0.30628
N          2.70773        0.00002       -0.00000
C         -0.79812        3.63266       -0.15187
C         -1.85441        4.56229       -0.31069
C          0.50439        4.07577        0.10806
C         -1.61852        5.93609       -0.18299
C          0.71918        5.45185        0.23111
H          1.32761        3.37549        0.19056
C         -0.32570        6.37807        0.09390
H         -2.43782        6.64873       -0.30440
H          1.73343        5.80670        0.43062
H         -0.12306        7.44696        0.19487
C         -2.70857        2.43953       -0.63550
C         -3.65196        1.47268       -1.00389
C         -3.05492        3.81200       -0.62392
C         -4.94617        1.89941       -1.31590
H         -3.39062        0.42116       -1.05349
C         -4.35836        4.21910       -0.93240
C         -5.30648        3.25495       -1.27128
H         -5.68921        1.15139       -1.60348
H         -4.62138        5.27950       -0.91937
H         -6.32808        3.55504       -1.51633
C          3.53260        0.89066        0.71739
C          4.88737        0.56140        0.45979
C          3.19236        1.90181        1.62289
C          5.91267        1.27994        1.08943
C          4.23088        2.60225        2.24078
H          2.15345        2.13736        1.84574
C          5.57856        2.30415        1.97423
H          6.95920        1.03295        0.89483
H          3.98454        3.39756        2.94876
H          6.36718        2.87318        2.47208
C          3.53262       -0.89060       -0.71739
C          3.19239       -1.90175       -1.62290
C          4.88738       -0.56132       -0.45979
C          4.23092       -2.60218       -2.24078
H          2.15348       -2.13732       -1.84575
C          5.91270       -1.27984       -1.08944
C          5.57860       -2.30405       -1.97423
H          3.98460       -3.39749       -2.94877
H          6.95922       -1.03283       -0.89483
H          6.36723       -2.87307       -2.47208
C         -0.79806       -3.63267        0.15187
C         -1.85432       -4.56232        0.31070
C          0.50447       -4.07576       -0.10806
C         -1.61841       -5.93612        0.18300
C          0.71928       -5.45184       -0.23110
H          1.32767       -3.37547       -0.19055
C         -0.32558       -6.37807       -0.09388
H         -2.43769       -6.64877        0.30442
H          1.73354       -5.80667       -0.43061
H         -0.12292       -7.44696       -0.19485
C         -2.70853       -2.43958        0.63550
C         -3.65193       -1.47274        1.00388
C         -3.05486       -3.81205        0.62392
C         -4.94614       -1.89950        1.31589
H         -3.39062       -0.42121        1.05347
C         -4.35828       -4.21917        0.93240
C         -5.30642       -3.25504        1.27127
H         -5.68919       -1.15148        1.60346
H         -4.62128       -5.27958        0.91938
H         -6.32801       -3.55515        1.51632
