99
	Energy: -1581689.7124694
C         -1.14201       -0.64741       -0.04747
C          0.01033        1.31434       -0.00066
C          1.13163       -0.66530        0.04629
N          1.18543        0.67309        0.04594
N         -1.17472        0.69167       -0.04719
N         -0.01075       -1.36313       -0.00055
N         -6.11277       -3.46853       -0.25549
N          0.05533        7.03349        0.00002
N          6.05731       -3.56436        0.25520
C          0.79473        7.84800       -0.86832
C          0.53894        9.20997       -0.55478
C          1.63484        7.49077       -1.93086
C          1.15462       10.22227       -1.30474
C          2.23475        8.51732       -2.66189
H          1.81328        6.44608       -2.18886
C          2.00414        9.87068       -2.35269
H          0.96602       11.27347       -1.07263
H          2.89497        8.26072       -3.49429
H          2.49089       10.64983       -2.94394
C         -0.67120        7.85931        0.86853
C         -1.51685        7.51508        1.93097
C         -0.39406        9.21717        0.55529
C         -2.10057        8.55076        2.66222
H         -1.71167        6.47327        2.18875
C         -0.99379       10.23885        1.30547
C         -1.84875        9.90040        2.35332
H         -2.76476        8.30437        3.49455
H         -0.78871       11.28701        1.07359
H         -2.32322       10.68697        2.94474
C          7.15558       -3.37750       -0.59506
C          8.18418       -4.28642       -0.22822
C          7.30588       -2.50842       -1.68342
C          9.38568       -4.30333       -0.95099
C          8.51107       -2.54553       -2.38647
H          6.50820       -1.82697       -1.98196
C          9.54532       -3.42861       -2.02472
H         10.18434       -4.99759       -0.67787
H          8.64982       -1.87483       -3.23825
H         10.47706       -3.43103       -2.59521
C          6.37158       -4.58303        1.16498
C          5.61734       -5.09607        2.22812
C          7.68509       -5.05352        0.89661
C          6.18810       -6.10461        3.00606
H          4.61834       -4.71917        2.45114
C          8.23517       -6.06801        1.69317
C          7.48144       -6.59247        2.74213
H          5.61632       -6.51995        3.83983
H          9.24431       -6.43849        1.49609
H          7.89805       -7.38395        3.36949
C         -6.44271       -4.48325       -1.16415
C         -7.76334       -4.93309       -0.89533
C         -5.69647       -5.00901       -2.22673
C         -8.32901       -5.93981       -1.69083
C         -6.28273       -6.00944       -3.00361
H         -4.69178       -4.64781       -2.45015
C         -7.58345       -6.47699       -2.73920
H         -9.34377       -6.29443       -1.49340
H         -5.71743       -6.43445       -3.83692
H         -8.01224       -7.26261       -3.36572
C         -7.20806       -3.26383        0.59455
C         -7.34497       -2.39140        1.68199
C         -8.25056       -4.15715        0.22864
C         -8.55061       -2.40913        2.38500
H         -6.53686       -1.72206        1.97989
C         -9.45222       -4.15471        0.95132
C         -9.59838       -3.27649        2.02411
H         -8.67901       -1.73547        3.23607
H        -10.26149       -4.83685        0.67889
H        -10.53007       -3.26390        2.59453
C          2.40956       -1.41734        0.10056
C          3.63876       -0.73848        0.16783
C          2.41535       -2.82306        0.08569
C          4.83881       -1.44175        0.22566
H          3.63678        0.35146        0.18931
C          3.61315       -3.53110        0.12973
H          1.46411       -3.35193        0.02344
C          4.83850       -2.84692        0.20367
H          3.60846       -4.62174        0.09080
C          0.02200        2.79808       -0.00051
C         -1.18000        3.52456       -0.06148
C          1.23528        3.50554        0.06062
C         -1.17156        4.91664       -0.06826
H         -2.12182        2.97854       -0.11876
C          1.24875        4.89758        0.06773
H          2.16840        2.94476        0.11779
C          0.04419        5.61831       -0.00018
H         -2.10843        5.47139       -0.14277
C         -2.43163       -1.37922       -0.10156
C         -2.45959       -2.78467       -0.08593
C         -3.64996       -0.68112       -0.16940
C         -3.66840       -3.47377       -0.12974
H         -1.51681       -3.32845       -0.02326
C         -4.86094       -1.36541       -0.22704
H         -3.63080        0.40865       -0.19149
C         -4.88280       -2.77040       -0.20424
H         -3.68088       -4.56432       -0.09018
H          2.19422        5.43751        0.14238
H         -5.79988       -0.81487       -0.30655
H          5.78634       -0.90604        0.30464
