30
	Energy: -1214215.5764947
C         -0.61223        1.15776       -0.00001
C          1.30884       -0.04866        0.00000
C         -0.69648       -1.10914        0.00001
N          0.64113       -1.21005        0.00003
N          0.72741        1.16019       -0.00002
N         -1.36840        0.04979       -0.00001
C         -1.47133       -2.34655        0.00001
C         -0.99911       -3.64538        0.00004
S         -3.21342       -2.30448       -0.00003
C         -2.04289       -4.60842        0.00003
H          0.06737       -3.86978        0.00007
C         -3.29164       -4.02666       -0.00000
H         -1.88143       -5.68739        0.00005
H         -4.25940       -4.52752       -0.00002
C         -1.29650        2.44747       -0.00000
C         -2.65745        2.68777        0.00001
S         -0.38915        3.93519       -0.00001
C         -2.96971        4.07321        0.00002
H         -3.38488        1.87624        0.00002
C         -1.84159        4.86388        0.00001
H         -3.98489        4.47278        0.00004
H         -1.79157        5.95242        0.00002
C          2.76790       -0.10094       -0.00000
C          3.65652        0.95749        0.00002
S          3.60258       -1.63061       -0.00003
C          5.01245        0.53517        0.00002
H          3.31750        1.99326        0.00003
C          5.13309       -0.83716        0.00000
H          5.86608        1.21454        0.00003
H          6.05077       -1.42478       -0.00000
