9
	Energy: -175799.4744140
C          0.65884       -1.11612       -0.00001
C         -1.29601       -0.01251        0.00003
C          0.63717        1.12863       -0.00002
N         -0.69611        1.17928        0.00002
N         -0.67323       -1.19249        0.00002
N          1.36934        0.01321       -0.00003
H         -2.39346       -0.02310        0.00006
H          1.17672        2.08434       -0.00003
H          1.21673       -2.06124       -0.00003
