60
	Energy: -1648541.9933498
C         -0.92535       -0.92360       -0.05514
C         -0.33468        1.26182       -0.05724
C          1.26258       -0.34243       -0.05252
N          0.96336        0.95689       -0.05482
N         -1.31030        0.35303       -0.05762
N          0.34950       -1.31418       -0.05269
C          2.69418       -0.72910       -0.04977
C          3.06646       -2.07808       -0.05276
C          3.69502        0.24985       -0.04139
C          4.40724       -2.43889       -0.05470
H          2.28669       -2.84014       -0.06231
C          5.03494       -0.11200       -0.03314
H          3.40368        1.30057       -0.02976
C          5.41663       -1.46335       -0.04548
H          4.67717       -3.49730       -0.08016
H          5.80081        0.66494        0.00358
C         -0.71536        2.69502       -0.05978
C         -2.06347        3.07275       -0.05418
C          0.26708        3.69158       -0.06512
C         -2.41954        4.41427       -0.05079
H         -2.82803        2.29541       -0.04080
C         -0.09029        5.03325       -0.07194
H          1.31684        3.39688       -0.07258
C         -1.43972        5.42009       -0.06537
H         -3.47524        4.68966       -0.01633
H          0.69161        5.79588       -0.09931
C         -1.97642       -1.96958       -0.05507
C         -1.63019       -3.32606       -0.04442
C         -3.33046       -1.61630       -0.06263
C         -2.61446       -4.30469       -0.03802
H         -0.57479       -3.59978       -0.02946
C         -4.31417       -2.59610       -0.06647
H         -3.59915       -0.55963       -0.07400
C         -3.97525       -3.95834       -0.05452
H         -2.32545       -5.35660        0.00052
H         -5.36540       -2.29979       -0.09530
C          6.84109       -1.83131       -0.05512
C          7.90379       -1.10818       -0.54457
S          7.39021       -3.33783        0.60769
C          9.15349       -1.77155       -0.38944
H          7.78792       -0.13739       -1.02717
C          9.02620       -2.99059        0.21845
H         10.10768       -1.36218       -0.72125
H          9.81161       -3.70388        0.46281
C         -5.00764       -5.00649       -0.06497
C         -4.91365       -6.29034       -0.54949
S         -6.58911       -4.72304        0.59041
C         -6.11531       -7.03770       -0.39664
H         -4.01391       -6.67921       -1.02699
C         -7.10824       -6.31353        0.20456
H         -6.23875       -8.06967       -0.72519
H         -8.12036       -6.63401        0.44598
C         -1.83263        6.83781       -0.08005
C         -2.98927        7.39567       -0.57286
S         -0.80254        8.06818        0.57997
C         -3.03873        8.81020       -0.42258
H         -3.77184        6.80887       -1.05451
C         -1.91977        9.31077        0.18495
H         -3.86954        9.43132       -0.75738
H         -1.69440       10.34825        0.42618
